
#(C) 2015 by Fachinformationszentrum Karlsruhe.  All rights reserved.
data_105031-ICSD
_database_code_ICSD 105031
_audit_creation_date 2004-10-01
_audit_update_record 2015-02-01
_chemical_name_systematic 'Aluminum erbium nickel (9/1/3)'
_chemical_formula_structural 'Al9 Er Ni3'
_chemical_formula_sum 'Al9 Er1 Ni3'
_chemical_name_structure_type Al9YNi3
_exptl_crystal_density_diffrn 4.66
_publ_section_title

;
Structure of R Ni3 Al9 (R= Y, Gd, Dy, Er) with either ordered or partly
disordered arrangement of Al-atom triangles and rare earth metal atoms
;
loop_
_citation_id
_citation_journal_full
_citation_year
_citation_journal_volume
_citation_page_first
_citation_page_last
_citation_journal_id_ASTM
primary 'Acta Crystallographica, Section B: Structural Science' 1993 49 468 474
ASBSDK
loop_
_publ_author_name
'Gladyshevskii, R.E.'
'Cenzual, K.'
'Flack, H.D.'
'Parthe, E.'
_cell_length_a 7.2716(5)
_cell_length_b 7.2716
_cell_length_c 27.347(3)
_cell_angle_alpha 90.
_cell_angle_beta 90.
_cell_angle_gamma 120.
_cell_volume 1252.28
_cell_formula_units_Z 6
_symmetry_space_group_name_H-M 'R 3 2 H'
_symmetry_Int_Tables_number 155
_refine_ls_R_factor_all 0.021
loop_
_symmetry_equiv_pos_site_id
_symmetry_equiv_pos_as_xyz
1 '-x, -x+y, -z'
2 'x-y, -y, -z'
3 'y, x, -z'
4 '-x+y, -x, z'
5 '-y, x-y, z'
6 'x, y, z'
7 '-x+2/3, -x+y+1/3, -z+1/3'
8 'x-y+2/3, -y+1/3, -z+1/3'
9 'y+2/3, x+1/3, -z+1/3'
10 '-x+y+2/3, -x+1/3, z+1/3'
11 '-y+2/3, x-y+1/3, z+1/3'
12 'x+2/3, y+1/3, z+1/3'
13 '-x+1/3, -x+y+2/3, -z+2/3'
14 'x-y+1/3, -y+2/3, -z+2/3'
15 'y+1/3, x+2/3, -z+2/3'
16 '-x+y+1/3, -x+2/3, z+2/3'
17 '-y+1/3, x-y+2/3, z+2/3'
18 'x+1/3, y+2/3, z+2/3'
loop_
_atom_type_symbol
_atom_type_oxidation_number
Al0+ 0
Er0+ 0
Ni0+ 0
loop_
_atom_site_label
_atom_site_type_symbol
_atom_site_symmetry_multiplicity
_atom_site_Wyckoff_symbol
_atom_site_fract_x
_atom_site_fract_y
_atom_site_fract_z
_atom_site_B_iso_or_equiv
_atom_site_occupancy
_atom_site_attached_hydrogens
Al1 Al0+ 6 c 0 0 0.3871(1) 0.0079(6) 1. 0
Al2 Al0+ 6 c 0 0 0.2818(1) 0.0064(6) 1. 0
Al3 Al0+ 6 c 0 0 0.0521(1) 0.0063(7) 1. 0
Al4 Al0+ 9 d 0.3333(4) 0 0 0.0092(8) 1. 0
Al5 Al0+ 9 e 0.2097(3) 0 0.5 0.0065(8) 1. 0
Al6 Al0+ 18 f 0.3338(6) 0.3356(6) 0.09967(8) 0.0086(9) 1. 0
Er1 Er0+ 6 c 0 0 0.16687(1) 0.0051(1) 1. 0
Ni1 Ni0+ 18 f 0.3331(2) 0.0061(2) 0.08522(3) 0.0044(3) 1. 0
#End of TTdata_105031-ICSD